
FAST Summary File

Predictions were generated on 29-Oct-2024 at 11:09:02 using OpenFAST, compiled as a 64-bit application using single precision at commit v3.5.3
  compiled with
    NWTC Subroutine Library
    ElastoDyn
    BeamDyn (unknown version, unknown date) [not called]
    InflowWind
    AeroDyn14 (unknown version, unknown date) [not called]
    AeroDyn
    ServoDyn (unknown version, unknown date) [not called]
    HydroDyn (unknown version, unknown date) [not called]
    SubDyn (unknown version, unknown date) [not called]
    ExtPtfm_MCKF (unknown version, unknown date) [not called]
    MAP (unknown version, unknown date) [not called]
    FEAMooring (unknown version, unknown date) [not called]
    MoorDyn (unknown version, unknown date) [not called]
    OrcaFlexInterface (unknown version, unknown date) [not called]
    IceFloe (unknown version, unknown date) [not called]
    IceDyn (unknown version, unknown date) [not called]


Modeling a land-based turbine
Description from the FAST input file: 
  Generated with AeroElasticSE FAST driver

Interpolation order for input/output time histories: 2 (quadratic)
Number of correction iterations:  0


   Requested Time Steps  
  -------------------------------------------------
  Component          Time Step (s)    Subcycles (-)
  -----------------  ---------------  -------------
  FAST (glue code)    1.000E-02
  InflowWind          1.000E-02              1
  ElastoDyn           1.000E-02              1
  AeroDyn             1.000E-02              1
  FAST output files   1.000E-02              1


   Requested Channels in FAST Output File(s)  
  --------------------------------------------
  Number  Name                  Units                 Generated by
  ------  --------------------  --------------------  ------------
       1  Time                  (s)                   OpenFAST
       2  Wind1VelX             (m/s)                 InflowWind
       3  Wind1VelY             (m/s)                 InflowWind
       4  Wind1VelZ             (m/s)                 InflowWind
       5  BldPitch1             (deg)                 ElastoDyn
       6  BldPitch2             (deg)                 ElastoDyn
       7  BldPitch3             (deg)                 ElastoDyn
       8  Azimuth               (deg)                 ElastoDyn
       9  RotSpeed              (rpm)                 ElastoDyn
      10  RotTorq               (kN-m)                ElastoDyn
      11  RotPwr                (kW)                  ElastoDyn
      12  HSSBrTq               (kN-m)                ElastoDyn
      13  TipClrnc1             (m)                   ElastoDyn
      14  TipClrnc2             (m)                   ElastoDyn
      15  TipClrnc3             (m)                   ElastoDyn
      16  TTDspFA               (m)                   ElastoDyn
      17  TTDspSS               (m)                   ElastoDyn
      18  RootFxb1              (kN)                  ElastoDyn
      19  RootFyb1              (kN)                  ElastoDyn
      20  RootFzb1              (kN)                  ElastoDyn
      21  RootMxb1              (kN-m)                ElastoDyn
      22  RootMyb1              (kN-m)                ElastoDyn
      23  RootMzb1              (kN-m)                ElastoDyn
      24  RootFxc1              (kN)                  ElastoDyn
      25  RootFyc1              (kN)                  ElastoDyn
      26  RootMxc1              (kN-m)                ElastoDyn
      27  RootMyc1              (kN-m)                ElastoDyn
      28  LSShftFxa             (kN)                  ElastoDyn
      29  LSShftFya             (kN)                  ElastoDyn
      30  LSShftFza             (kN)                  ElastoDyn
      31  LSShftMxa             (kN-m)                ElastoDyn
      32  LSSTipMya             (kN-m)                ElastoDyn
      33  LSSTipMza             (kN-m)                ElastoDyn
      34  LSShftFys             (kN)                  ElastoDyn
      35  LSShftFzs             (kN)                  ElastoDyn
      36  LSSTipMys             (kN-m)                ElastoDyn
      37  LSSTipMzs             (kN-m)                ElastoDyn
      38  YawBrFxp              (kN)                  ElastoDyn
      39  YawBrFyp              (kN)                  ElastoDyn
      40  YawBrFzp              (kN)                  ElastoDyn
      41  YawBrMxp              (kN-m)                ElastoDyn
      42  YawBrMyp              (kN-m)                ElastoDyn
      43  YawBrMzp              (kN-m)                ElastoDyn
      44  TwrBsFxt              (kN)                  ElastoDyn
      45  TwrBsFyt              (kN)                  ElastoDyn
      46  TwrBsFzt              (kN)                  ElastoDyn
      47  TwrBsMxt              (kN-m)                ElastoDyn
      48  TwrBsMyt              (kN-m)                ElastoDyn
      49  TwrBsMzt              (kN-m)                ElastoDyn
